6
Lattice="6.177851044834697 0.0 0.0 -3.0889255224173473 5.350175945623085 0.0 0.0 0.0 4.671086312548688" Properties=species:S:1:pos:R:3:tags:I:1 structure_type=CoSnBA energy=-2.7341658948280383 pbc="T T T"
I        0.00000000       0.00000000       0.00000000        0
I        0.00000000       3.56678396       2.33554316        1
I        3.08892552       1.78339198       2.33554316        1
Ag       3.08892552       0.00000000       0.00000000        2
Ag      -1.54446276       2.67508797       0.00000000        2
Ag       1.54446276       2.67508797       0.00000000        2
6
Lattice="6.250898732339664 0.0 0.0 -3.1254493661698306 5.4134370986900935 0.0 0.0 0.0 4.619954530935051" Properties=species:S:1:pos:R:3:tags:I:1 structure_type=CoSnBA energy=-2.740776199992979 pbc="T T T"
I        0.00000000       0.00000000       0.00000000        0
I        0.00000000       3.60895807       2.30997727        1
I        3.12544937       1.80447903       2.30997727        1
Ag       3.12544937       0.00000000       0.00000000        2
Ag      -1.56272468       2.70671855       0.00000000        2
Ag       1.56272468       2.70671855       0.00000000        2
6
Lattice="6.3240470191073035 0.0 0.0 -3.1620235095536504 5.476785373274178 0.0 0.0 0.0 4.569779722788136" Properties=species:S:1:pos:R:3:tags:I:1 structure_type=CoSnBA energy=-2.7442025887721684 pbc="T T T"
I        0.00000000       0.00000000       0.00000000        0
I        0.00000000       3.65119025       2.28488986        1
I        3.16202351       1.82559512       2.28488986        1
Ag       3.16202351       0.00000000       0.00000000        2
Ag      -1.58101175       2.73839269       0.00000000        2
Ag       1.58101175       2.73839269       0.00000000        2
6
Lattice="6.397256204206065 0.0 0.0 -3.198628102103031 5.540186387360063 0.0 0.0 0.0 4.520592524430734" Properties=species:S:1:pos:R:3:tags:I:1 structure_type=CoSnBA energy=-2.7448617314512376 pbc="T T T"
I        0.00000000       0.00000000       0.00000000        0
I        0.00000000       3.69345759       2.26029626        1
I        3.19862810       1.84672880       2.26029626        1
Ag       3.19862810       0.00000000       0.00000000        2
Ag      -1.59931405       2.77009319       0.00000000        2
Ag       1.59931405       2.77009319       0.00000000        2
6
Lattice="6.470484093320403 0.0 0.0 -3.2352420466602 5.60360359959859 0.0 0.0 0.0 4.47242296432872" Properties=species:S:1:pos:R:3:tags:I:1 structure_type=CoSnBA energy=-2.743111649004277 pbc="T T T"
I        0.00000000       0.00000000       0.00000000        0
I        0.00000000       3.73573573       2.23621148        1
I        3.23524205       1.86786787       2.23621148        1
Ag       3.23524205       0.00000000       0.00000000        2
Ag      -1.61762102       2.80180180       0.00000000        2
Ag       1.61762102       2.80180180       0.00000000        2
6
Lattice="6.543686223658487 0.0 0.0 -3.2718431118292424 5.66699850408251 0.0 0.0 0.0 4.425300141397674" Properties=species:S:1:pos:R:3:tags:I:1 structure_type=CoSnBA energy=-2.7392605351633392 pbc="T T T"
I        0.00000000       0.00000000       0.00000000        0
I        0.00000000       3.77799900       2.21265007        1
I        3.27184311       1.88899950       2.21265007        1
Ag       3.27184311       0.00000000       0.00000000        2
Ag      -1.63592156       2.83349925       0.00000000        2
Ag       1.63592156       2.83349925       0.00000000        2
6
Lattice="6.616816135183934 0.0 0.0 -3.308408067591966 5.730330865240056 0.0 0.0 0.0 4.379251896927843" Properties=species:S:1:pos:R:3:tags:I:1 structure_type=CoSnBA energy=-2.7335741683782544 pbc="T T T"
I        0.00000000       0.00000000       0.00000000        0
I        0.00000000       3.82022058       2.18962595        1
I        3.30840807       1.91011029       2.18962595        1
Ag       3.30840807       0.00000000       0.00000000        2
Ag      -1.65420403       2.86516543       0.00000000        2
Ag       1.65420403       2.86516543       0.00000000        2
6
Lattice="6.68982568572302 0.0 0.0 -3.3449128428615085 5.793558990725788 0.0 0.0 0.0 4.334304486805462" Properties=species:S:1:pos:R:3:tags:I:1 structure_type=CoSnBA energy=-2.7262821515614633 pbc="T T T"
I        0.00000000       0.00000000       0.00000000        0
I        0.00000000       3.86237266       2.16715224        1
I        3.34491284       1.93118633       2.16715224        1
Ag       3.34491284       0.00000000       0.00000000        2
Ag      -1.67245642       2.89677950       0.00000000        2
Ag       1.67245642       2.89677950       0.00000000        2
4
Lattice="1.951363 -7.316616 0.0 1.951363 7.316616 0.0 0.0 0.0 3.917083" Properties=species:S:1:pos:R:3:forces:R:3 structure_type=CrB energy=-2.803084087005118 pbc="T T T"
Ag       1.95136300      -4.46902300       0.97927100       0.00000989       0.00000274      -0.00000478
I        1.95136300      -1.71221700       0.97927100       0.00000810       0.00000438       0.00000519
Ag       1.95136300       4.46902300       2.93781200      -0.00000861      -0.00000387       0.00000265
I        1.95136300       1.71221700       2.93781200      -0.00000938      -0.00000325      -0.00000306
4
Lattice="1.951363 -7.316616 0.0 1.951363 7.316616 0.0 0.0 0.0 3.917083" Properties=species:S:1:pos:R:3:forces:R:3 structure_type=CrB energy=-2.803084087005118 pbc="T T T"
Ag       1.95136300      -4.46902300       0.97927100       0.00000989       0.00000274      -0.00000478
I        1.95136300      -1.71221700       0.97927100       0.00000810       0.00000438       0.00000519
Ag       1.95136300       4.46902300       2.93781200      -0.00000861      -0.00000387       0.00000265
I        1.95136300       1.71221700       2.93781200      -0.00000938      -0.00000325      -0.00000306
4
Lattice="1.951363 -7.316616 0.0 1.951363 7.316616 0.0 0.0 0.0 3.917083" Properties=species:S:1:pos:R:3:forces:R:3 structure_type=CrB energy=-2.803084087005118 pbc="T T T"
Ag       1.95136300      -4.46902300       0.97927100       0.00000989       0.00000274      -0.00000478
I        1.95136300      -1.71221700       0.97927100       0.00000810       0.00000438       0.00000519
Ag       1.95136300       4.46902300       2.93781200      -0.00000861      -0.00000387       0.00000265
I        1.95136300       1.71221700       2.93781200      -0.00000938      -0.00000325      -0.00000306
4
Lattice="1.951363 -7.316616 0.0 1.951363 7.316616 0.0 0.0 0.0 3.917083" Properties=species:S:1:pos:R:3:forces:R:3 structure_type=CrB energy=-2.803084087005118 pbc="T T T"
Ag       1.95136300      -4.46902300       0.97927100       0.00000989       0.00000274      -0.00000478
I        1.95136300      -1.71221700       0.97927100       0.00000810       0.00000438       0.00000519
Ag       1.95136300       4.46902300       2.93781200      -0.00000861      -0.00000387       0.00000265
I        1.95136300       1.71221700       2.93781200      -0.00000938      -0.00000325      -0.00000306
4
Lattice="1.951363 -7.316616 0.0 1.951363 7.316616 0.0 0.0 0.0 3.917083" Properties=species:S:1:pos:R:3:forces:R:3 structure_type=CrB energy=-2.803084087005118 pbc="T T T"
Ag       1.95136300      -4.46902300       0.97927100       0.00000989       0.00000274      -0.00000478
I        1.95136300      -1.71221700       0.97927100       0.00000810       0.00000438       0.00000519
Ag       1.95136300       4.46902300       2.93781200      -0.00000861      -0.00000387       0.00000265
I        1.95136300       1.71221700       2.93781200      -0.00000938      -0.00000325      -0.00000306
4
Lattice="1.951363 -7.316616 0.0 1.951363 7.316616 0.0 0.0 0.0 3.917083" Properties=species:S:1:pos:R:3:forces:R:3 structure_type=CrB energy=-2.803084087005118 pbc="T T T"
Ag       1.95136300      -4.46902300       0.97927100       0.00000989       0.00000274      -0.00000478
I        1.95136300      -1.71221700       0.97927100       0.00000810       0.00000438       0.00000519
Ag       1.95136300       4.46902300       2.93781200      -0.00000861      -0.00000387       0.00000265
I        1.95136300       1.71221700       2.93781200      -0.00000938      -0.00000325      -0.00000306
4
Lattice="1.951363 -7.316616 0.0 1.951363 7.316616 0.0 0.0 0.0 3.917083" Properties=species:S:1:pos:R:3:forces:R:3 structure_type=CrB energy=-2.803084087005118 pbc="T T T"
Ag       1.95136300      -4.46902300       0.97927100       0.00000989       0.00000274      -0.00000478
I        1.95136300      -1.71221700       0.97927100       0.00000810       0.00000438       0.00000519
Ag       1.95136300       4.46902300       2.93781200      -0.00000861      -0.00000387       0.00000265
I        1.95136300       1.71221700       2.93781200      -0.00000938      -0.00000325      -0.00000306
4
Lattice="1.951363 -7.316616 0.0 1.951363 7.316616 0.0 0.0 0.0 3.917083" Properties=species:S:1:pos:R:3:forces:R:3 structure_type=CrB energy=-2.803084087005118 pbc="T T T"
Ag       1.95136300      -4.46902300       0.97927100       0.00000989       0.00000274      -0.00000478
I        1.95136300      -1.71221700       0.97927100       0.00000810       0.00000438       0.00000519
Ag       1.95136300       4.46902300       2.93781200      -0.00000861      -0.00000387       0.00000265
I        1.95136300       1.71221700       2.93781200      -0.00000938      -0.00000325      -0.00000306
2
Lattice="3.5069568382207335 0.0 0.0 0.0 3.5069568382207335 0.0 0.0 0.0 3.5069568382207335" Properties=species:S:1:pos:R:3 energy=-2.3944004426593892 structure_type=CsCl pbc="T T T"
Ag       0.00000000       0.00000000       0.00000000
I        1.75347842       1.75347842       1.75347842
2
Lattice="3.5998519698702567 0.0 0.0 0.0 3.5998519698702567 0.0 0.0 0.0 3.5998519698702567" Properties=species:S:1:pos:R:3 energy=-2.474352102406556 structure_type=CsCl pbc="T T T"
Ag       0.00000000       0.00000000       0.00000000
I        1.79992598       1.79992598       1.79992598
2
Lattice="3.688185282731573 0.0 0.0 0.0 3.688185282731573 0.0 0.0 0.0 3.688185282731573" Properties=species:S:1:pos:R:3 energy=-2.49475523646106 structure_type=CsCl pbc="T T T"
Ag       0.00000000       0.00000000       0.00000000
I        1.84409264       1.84409264       1.84409264
2
Lattice="3.7724786717630465 0.0 0.0 0.0 3.7724786717630465 0.0 0.0 0.0 3.7724786717630465" Properties=species:S:1:pos:R:3 energy=-2.4762886388925835 structure_type=CsCl pbc="T T T"
Ag       0.00000000       0.00000000       0.00000000
I        1.88623934       1.88623934       1.88623934
2
Lattice="3.853164595525264 0.0 0.0 0.0 3.853164595525264 0.0 0.0 0.0 3.853164595525264" Properties=species:S:1:pos:R:3 energy=-2.4316971754305996 structure_type=CsCl pbc="T T T"
Ag       0.00000000       0.00000000       0.00000000
I        1.92658230       1.92658230       1.92658230
2
Lattice="3.9306058857274384 0.0 0.0 0.0 3.9306058857274384 0.0 0.0 0.0 3.9306058857274384" Properties=species:S:1:pos:R:3 energy=-2.369093767250888 structure_type=CsCl pbc="T T T"
Ag       0.00000000       0.00000000       0.00000000
I        1.96530294       1.96530294       1.96530294
2
Lattice="4.005110288682981 0.0 0.0 0.0 4.005110288682981 0.0 0.0 0.0 4.005110288682981" Properties=species:S:1:pos:R:3 energy=-2.293790699710371 structure_type=CsCl pbc="T T T"
Ag       0.00000000       0.00000000       0.00000000
I        2.00255514       2.00255514       2.00255514
2
Lattice="4.0769413486624755 0.0 0.0 0.0 4.0769413486624755 0.0 0.0 0.0 4.0769413486624755" Properties=species:S:1:pos:R:3 energy=-2.2093540847999975 structure_type=CsCl pbc="T T T"
Ag       0.00000000       0.00000000       0.00000000
I        2.03847067       2.03847067       2.03847067
4
Lattice="0.0 3.507724184998652 3.507724184998652 3.507724184998652 0.0 3.507724184998652 3.507724184998652 3.507724184998652 0.0" Properties=species:S:1:pos:R:3 structure_type=NaTl energy=-2.164508083340479 pbc="T T T"
Ag       0.87693105       0.87693105       0.87693105
Ag       6.13851732       6.13851732       6.13851732
I        2.63079314       2.63079314       2.63079314
I        4.38465523       4.38465523       4.38465523
4
Lattice="0.0 3.6002154514207305 3.6002154514207305 3.6002154514207305 0.0 3.6002154514207305 3.6002154514207305 3.6002154514207305 0.0" Properties=species:S:1:pos:R:3 structure_type=NaTl energy=-2.2384455024730414 pbc="T T T"
Ag       0.90005386       0.90005386       0.90005386
Ag       6.30037704       6.30037704       6.30037704
I        2.70016159       2.70016159       2.70016159
I        4.50026931       4.50026931       4.50026931
4
Lattice="0.0 3.6881839704782045 3.6881839704782045 3.6881839704782045 0.0 3.6881839704782045 3.6881839704782045 3.6881839704782045 0.0" Properties=species:S:1:pos:R:3 structure_type=NaTl energy=-2.254776762914844 pbc="T T T"
Ag       0.92204599       0.92204599       0.92204599
Ag       6.45432195       6.45432195       6.45432195
I        2.76613798       2.76613798       2.76613798
I        4.61022996       4.61022996       4.61022996
4
Lattice="0.0 3.7721451231271725 3.7721451231271725 3.7721451231271725 0.0 3.7721451231271725 3.7721451231271725 3.7721451231271725 0.0" Properties=species:S:1:pos:R:3 structure_type=NaTl energy=-2.235099311132217 pbc="T T T"
Ag       0.94303628       0.94303628       0.94303628
Ag       6.60125397       6.60125397       6.60125397
I        2.82910884       2.82910884       2.82910884
I        4.71518140       4.71518140       4.71518140
4
Lattice="0.0 3.852526297089447 3.852526297089447 3.852526297089447 0.0 3.852526297089447 3.852526297089447 3.852526297089447 0.0" Properties=species:S:1:pos:R:3 structure_type=NaTl energy=-2.1921787059982307 pbc="T T T"
Ag       0.96313157       0.96313157       0.96313157
Ag       6.74192102       6.74192102       6.74192102
I        2.88939472       2.88939472       2.88939472
I        4.81565787       4.81565787       4.81565787
4
Lattice="0.0 3.9296863089031424 3.9296863089031424 3.9296863089031424 0.0 3.9296863089031424 3.9296863089031424 3.9296863089031424 0.0" Properties=species:S:1:pos:R:3 structure_type=NaTl energy=-2.1338291293068323 pbc="T T T"
Ag       0.98242158       0.98242158       0.98242158
Ag       6.87695104       6.87695104       6.87695104
I        2.94726473       2.94726473       2.94726473
I        4.91210789       4.91210789       4.91210789
4
Lattice="0.0 4.003929677902746 4.003929677902746 4.003929677902746 0.0 4.003929677902746 4.003929677902746 4.003929677902746 0.0" Properties=species:S:1:pos:R:3 structure_type=NaTl energy=-2.064982536860043 pbc="T T T"
Ag       1.00098242       1.00098242       1.00098242
Ag       7.00687694       7.00687694       7.00687694
I        3.00294726       3.00294726       3.00294726
I        5.00491210       5.00491210       5.00491210
4
Lattice="0.0 4.075517320542661 4.075517320542661 4.075517320542661 0.0 4.075517320542661 4.075517320542661 4.075517320542661 0.0" Properties=species:S:1:pos:R:3 structure_type=NaTl energy=-1.9888369036780205 pbc="T T T"
Ag       1.01887933       1.01887933       1.01887933
Ag       7.13215531       7.13215531       7.13215531
I        3.05663799       3.05663799       3.05663799
I        5.09439665       5.09439665       5.09439665
4
Lattice="3.899386565374442 0.0 0.0 0.0 3.899386565374442 0.0 1.949693282687221 1.949693282687221 7.162811204825891" Properties=species:S:1:pos:R:3:tags:I:1 structure_type=NbP energy=-2.6645187334215734 pbc="T T T"
Ag       3.89938657       2.92453992       1.79070280        0
Ag       1.94969328       2.92453992       5.37210840        1
I        3.89938657       4.87423321       5.37210840        2
I        1.94969328       0.97484664       1.79070280        3
4
Lattice="3.9400233370304902 0.0 0.0 0.0 3.9400233370304902 0.0 1.9700116685152451 1.9700116685152451 7.107689243186453" Properties=species:S:1:pos:R:3:tags:I:1 structure_type=NbP energy=-2.678167222184129 pbc="T T T"
Ag       3.94002334       2.95501750       1.77692231        0
Ag       1.97001167       2.95501750       5.33076693        1
I        3.94002334       4.92502917       5.33076693        2
I        1.97001167       0.98500583       1.77692231        3
4
Lattice="3.9824139326082837 0.0 0.0 0.0 3.9824139326082837 0.0 1.9912069663041418 1.9912069663041418 7.0471026358494875" Properties=species:S:1:pos:R:3:tags:I:1 structure_type=NbP energy=-2.6849537408852484 pbc="T T T"
Ag       3.98241393       2.98681045       1.76177566        0
Ag       1.99120697       2.98681045       5.28532698        1
I        3.98241393       4.97801742       5.28532698        2
I        1.99120697       0.99560348       1.76177566        3
4
Lattice="4.026939095123739 0.0 0.0 0.0 4.026939095123739 0.0 2.0134695475618694 2.0134695475618694 6.980072380157269" Properties=species:S:1:pos:R:3:tags:I:1 structure_type=NbP energy=-2.6847173594287597 pbc="T T T"
Ag       4.02693910       3.02020432       1.74501810        0
Ag       2.01346955       3.02020432       5.23505429        1
I        4.02693910       5.03367387       5.23505429        2
I        2.01346955       1.00673477       1.74501810        3
4
Lattice="4.074126046922659 0.0 0.0 0.0 4.074126046922659 0.0 2.0370630234613296 2.0370630234613296 6.905240865210702" Properties=species:S:1:pos:R:3:tags:I:1 structure_type=NbP energy=-2.6772954858315643 pbc="T T T"
Ag       4.07412605       3.05559454       1.72631022        0
Ag       2.03706302       3.05559454       5.17893065        1
I        4.07412605       5.09265756       5.17893065        2
I        2.03706302       1.01853151       1.72631022        3
4
Lattice="4.124742591226159 0.0 0.0 0.0 4.124742591226159 0.0 2.0623712956130795 2.0623712956130795 6.820630377565637" Properties=species:S:1:pos:R:3:tags:I:1 structure_type=NbP energy=-2.6625238702399656 pbc="T T T"
Ag       4.12474259       3.09355694       1.70515759        0
Ag       2.06237130       3.09355694       5.11547278        1
I        4.12474259       5.15592824       5.11547278        2
I        2.06237130       1.03118565       1.70515759        3
4
Lattice="4.1799867862072455 0.0 0.0 0.0 4.1799867862072455 0.0 2.0899933931036228 2.0899933931036228 6.723157133854301" Properties=species:S:1:pos:R:3:tags:I:1 structure_type=NbP energy=-2.640236609178828 pbc="T T T"
Ag       4.17998679       3.13499009       1.68078928        0
Ag       2.08999339       3.13499009       5.04236785        1
I        4.17998679       5.22498348       5.04236785        2
I        2.08999339       1.04499670       1.68078928        3
4
Lattice="4.241926858302907 0.0 0.0 0.0 4.241926858302907 0.0 2.1209634291514536 2.1209634291514536 6.607506100529209" Properties=species:S:1:pos:R:3:tags:I:1 structure_type=NbP energy=-2.61026614921866 pbc="T T T"
Ag       4.24192686       3.18144514       1.65187653        0
Ag       2.12096343       3.18144514       4.95562958        1
I        4.24192686       5.30240857       4.95562958        2
I        2.12096343       1.06048171       1.65187653        3
4
Lattice="4.202101361965854 0.0 0.0 -2.101050680982926 3.6391265287396184 0.0 0.0 0.0 6.7307882691601755" Properties=species:S:1:pos:R:3:tags:I:1 energy=-2.839696284092497 structure_type=NiAs pbc="T T T"
Ag       0.00000000       0.00000000       0.00000000        0
Ag       0.00000000       0.00000000       3.36539413        0
I        0.00000000       2.42608435       1.68269707        1
I        2.10105068       1.21304218       5.04809120        1
4
Lattice="4.2780482908808874 0.0 0.0 -2.139024145440443 3.7048984985194484 0.0 0.0 0.0 6.513070418652315" Properties=species:S:1:pos:R:3:tags:I:1 energy=-2.8436473625479266 structure_type=NiAs pbc="T T T"
Ag       0.00000000       0.00000000       0.00000000        0
Ag       0.00000000       0.00000000       3.25653521        0
I        0.00000000       2.46993233       1.62826760        1
I        2.13902415       1.23496617       4.88480281        1
4
Lattice="4.336294713176109 0.0 0.0 -2.1681473565880536 3.7553413799066666 0.0 0.0 0.0 6.3579040241695814" Properties=species:S:1:pos:R:3:tags:I:1 energy=-2.845688489614986 structure_type=NiAs pbc="T T T"
Ag       0.00000000       0.00000000       0.00000000        0
Ag       0.00000000       0.00000000       3.17895201        0
I        0.00000000       2.50356092       1.58947601        1
I        2.16814736       1.25178046       4.76842802        1
4
Lattice="4.38414107669239 0.0 0.0 -2.192070538346194 3.7967775461904707 0.0 0.0 0.0 6.238112322576498" Properties=species:S:1:pos:R:3:tags:I:1 energy=-2.846333750640042 structure_type=NiAs pbc="T T T"
Ag       0.00000000       0.00000000       0.00000000        0
Ag       0.00000000       0.00000000       3.11905616        0
I        0.00000000       2.53118503       1.55952808        1
I        2.19207054       1.26559252       4.67858424        1
4
Lattice="4.425090460640877 0.0 0.0 -2.212545230320438 3.8322407529591835 0.0 0.0 0.0 6.141082058525189" Properties=species:S:1:pos:R:3:tags:I:1 energy=-2.84595792228356 structure_type=NiAs pbc="T T T"
Ag       0.00000000       0.00000000       0.00000000        0
Ag       0.00000000       0.00000000       3.07054103        0
I        0.00000000       2.55482717       1.53527051        1
I        2.21254523       1.27741358       4.60581154        1
4
Lattice="4.461099566127642 0.0 0.0 -2.23054978306382 3.863425553078275 0.0 0.0 0.0 6.059944745426229" Properties=species:S:1:pos:R:3:tags:I:1 energy=-2.844834475516109 structure_type=NiAs pbc="T T T"
Ag       0.00000000       0.00000000       0.00000000        0
Ag       0.00000000       0.00000000       3.02997237        0
I        0.00000000       2.57561704       1.51498619        1
I        2.23054978       1.28780852       4.54495856        1
4
Lattice="4.493377181095629 0.0 0.0 -2.2466885905478136 3.891378787614125 0.0 0.0 0.0 5.990545505518121" Properties=species:S:1:pos:R:3:tags:I:1 energy=-2.8431631427956745 structure_type=NiAs pbc="T T T"
Ag       0.00000000       0.00000000       0.00000000        0
Ag       0.00000000       0.00000000       2.99527275        0
I        0.00000000       2.59425253       1.49763638        1
I        2.24668859       1.29712626       4.49290913        1
4
Lattice="4.522725244467155 0.0 0.0 -2.2613626222335768 3.9167949560457425 0.0 0.0 0.0 5.930177530960972" Properties=species:S:1:pos:R:3:tags:I:1 energy=-2.841089934197953 structure_type=NiAs pbc="T T T"
Ag       0.00000000       0.00000000       0.00000000        0
Ag       0.00000000       0.00000000       2.96508877        0
I        0.00000000       2.61119664       1.48254438        1
I        2.26136262       1.30559832       4.44763315        1
2
Lattice="0.0 2.688976630881208 2.688976630881208 2.688976630881208 0.0 2.688976630881208 2.688976630881208 2.688976630881208 0.0" Properties=species:S:1:pos:R:3 energy=-2.351778903772356 structure_type=RS pbc="T T T"
Ag       0.00000000       0.00000000       0.00000000
I        2.68897663       2.68897663       2.68897663
2
Lattice="0.0 2.767691719944747 2.767691719944747 2.767691719944747 0.0 2.767691719944747 2.767691719944747 2.767691719944747 0.0" Properties=species:S:1:pos:R:3 energy=-2.6435921452357434 structure_type=RS pbc="T T T"
Ag       0.00000000       0.00000000       0.00000000
I        2.76769172       2.76769172       2.76769172
2
Lattice="0.0 2.8421672882646414 2.8421672882646414 2.8421672882646414 0.0 2.8421672882646414 2.8421672882646414 2.8421672882646414 0.0" Properties=species:S:1:pos:R:3 energy=-2.7888084189035 structure_type=RS pbc="T T T"
Ag       0.00000000       0.00000000       0.00000000
I        2.84216729       2.84216729       2.84216729
2
Lattice="0.0 2.9129318350476776 2.9129318350476776 2.9129318350476776 0.0 2.9129318350476776 2.9129318350476776 2.9129318350476776 0.0" Properties=species:S:1:pos:R:3 energy=-2.8463160106621217 structure_type=RS pbc="T T T"
Ag       0.00000000       0.00000000       0.00000000
I        2.91293184       2.91293184       2.91293184
2
Lattice="0.0 2.9804157301137093 2.9804157301137093 2.9804157301137093 0.0 2.9804157301137093 2.9804157301137093 2.9804157301137093 0.0" Properties=species:S:1:pos:R:3 energy=-2.8492905917810276 structure_type=RS pbc="T T T"
Ag       0.00000000       0.00000000       0.00000000
I        2.98041573       2.98041573       2.98041573
2
Lattice="0.0 3.0449746468660353 3.0449746468660353 3.0449746468660353 0.0 3.0449746468660353 3.0449746468660353 3.0449746468660353 0.0" Properties=species:S:1:pos:R:3 energy=-2.8172194207727443 structure_type=RS pbc="T T T"
Ag       0.00000000       0.00000000       0.00000000
I        3.04497465       3.04497465       3.04497465
2
Lattice="0.0 3.1069063061391113 3.1069063061391113 3.1069063061391113 0.0 3.1069063061391113 3.1069063061391113 3.1069063061391113 0.0" Properties=species:S:1:pos:R:3 energy=-2.761969383689575 structure_type=RS pbc="T T T"
Ag       0.00000000       0.00000000       0.00000000
I        3.10690631       3.10690631       3.10690631
2
Lattice="0.0 3.166462716701896 3.166462716701896 3.166462716701896 0.0 3.166462716701896 3.166462716701896 3.166462716701896 0.0" Properties=species:S:1:pos:R:3 energy=-2.6909976569586433 structure_type=RS pbc="T T T"
Ag       0.00000000       0.00000000       0.00000000
I        3.16646272       3.16646272       3.16646272
2
Lattice="0.0 2.917240789692433 2.917240789692433 2.917240789692433 0.0 2.917240789692433 2.917240789692433 2.917240789692433 0.0" Properties=species:S:1:pos:R:3 energy=-2.4673177746881265 structure_type=ZB pbc="T T T"
Ag       0.00000000       0.00000000       0.00000000
I        1.45862039       1.45862039       1.45862039
2
Lattice="0.0 3.0009905644725072 3.0009905644725072 3.0009905644725072 0.0 3.0009905644725072 3.0009905644725072 3.0009905644725072 0.0" Properties=species:S:1:pos:R:3 energy=-2.731921977654565 structure_type=ZB pbc="T T T"
Ag       0.00000000       0.00000000       0.00000000
I        1.50049528       1.50049528       1.50049528
2
Lattice="0.0 3.0803098814927337 3.0803098814927337 3.0803098814927337 0.0 3.0803098814927337 3.0803098814927337 3.0803098814927337 0.0" Properties=species:S:1:pos:R:3 energy=-2.85073854928487 structure_type=ZB pbc="T T T"
Ag       0.00000000       0.00000000       0.00000000
I        1.54015494       1.54015494       1.54015494
2
Lattice="0.0 3.1557419301966894 3.1557419301966894 3.1557419301966894 0.0 3.1557419301966894 3.1557419301966894 3.1557419301966894 0.0" Properties=species:S:1:pos:R:3 energy=-2.8888855654513463 structure_type=ZB pbc="T T T"
Ag       0.00000000       0.00000000       0.00000000
I        1.57787097       1.57787097       1.57787097
2
Lattice="0.0 3.227730594591379 3.227730594591379 3.227730594591379 0.0 3.227730594591379 3.227730594591379 3.227730594591379 0.0" Properties=species:S:1:pos:R:3 energy=-2.8804038651578594 structure_type=ZB pbc="T T T"
Ag       0.00000000       0.00000000       0.00000000
I        1.61386530       1.61386530       1.61386530
2
Lattice="0.0 3.296643825338493 3.296643825338493 3.296643825338493 0.0 3.296643825338493 3.296643825338493 3.296643825338493 0.0" Properties=species:S:1:pos:R:3 energy=-2.8439368161780294 structure_type=ZB pbc="T T T"
Ag       0.00000000       0.00000000       0.00000000
I        1.64832191       1.64832191       1.64832191
2
Lattice="0.0 3.3627904305150094 3.3627904305150094 3.3627904305150094 0.0 3.3627904305150094 3.3627904305150094 3.3627904305150094 0.0" Properties=species:S:1:pos:R:3 energy=-2.7901144878705963 structure_type=ZB pbc="T T T"
Ag       0.00000000       0.00000000       0.00000000
I        1.68139522       1.68139522       1.68139522
2
Lattice="0.0 3.426432408093892 3.426432408093892 3.426432408093892 0.0 3.426432408093892 3.426432408093892 3.426432408093892 0.0" Properties=species:S:1:pos:R:3 energy=-2.725214902602602 structure_type=ZB pbc="T T T"
Ag       0.00000000       0.00000000       0.00000000
I        1.71321620       1.71321620       1.71321620
6
Lattice="6.001605888534357 0.0 0.0 -3.000802944267177 5.197543162973031 0.0 0.0 0.0 3.7833752042224083" Properties=species:S:1:pos:R:3:tags:I:1 structure_type=CoSnAB energy=-3.7230074653125484 pbc="T T T"
Al       0.00000000       0.00000000       0.00000000        0
Al       0.00000000       3.46502878       1.89168760        1
Al       3.00080294       1.73251439       1.89168760        1
As       3.00080294       0.00000000       0.00000000        2
As      -1.50040147       2.59877158       0.00000000        2
As       1.50040147       2.59877158       0.00000000        2
6
Lattice="6.063233463558616 0.0 0.0 -3.0316167317793066 5.250914208517671 0.0 0.0 0.0 3.7526472437325724" Properties=species:S:1:pos:R:3:tags:I:1 structure_type=CoSnAB energy=-3.7336151712443097 pbc="T T T"
Al       0.00000000       0.00000000       0.00000000        0
Al       0.00000000       3.50060947       1.87632362        1
Al       3.03161673       1.75030474       1.87632362        1
As       3.03161673       0.00000000       0.00000000        2
As      -1.51580837       2.62545710       0.00000000        2
As       1.51580837       2.62545710       0.00000000        2
6
Lattice="6.127940910715165 0.0 0.0 -3.0639704553575813 5.306952501569282 0.0 0.0 0.0 3.7186429549375406" Properties=species:S:1:pos:R:3:tags:I:1 structure_type=CoSnAB energy=-3.740101443589083 pbc="T T T"
Al       0.00000000       0.00000000       0.00000000        0
Al       0.00000000       3.53796833       1.85932148        1
Al       3.06397046       1.76898417       1.85932148        1
As       3.06397046       0.00000000       0.00000000        2
As      -1.53198523       2.65347625       0.00000000        2
As       1.53198523       2.65347625       0.00000000        2
6
Lattice="6.196474160442385 0.0 0.0 -3.098237080221191 5.366304036836957 0.0 0.0 0.0 3.6806838031732276" Properties=species:S:1:pos:R:3:tags:I:1 structure_type=CoSnAB energy=-3.743601263493474 pbc="T T T"
Al       0.00000000       0.00000000       0.00000000        0